
    -----------------------------------------------------------------------
          Psi4: An Open-Source Ab Initio Electronic Structure Package
                               Psi4 1.2.1 release

                         Git: Rev {HEAD} 406f4de 


    R. M. Parrish, L. A. Burns, D. G. A. Smith, A. C. Simmonett,
    A. E. DePrince III, E. G. Hohenstein, U. Bozkaya, A. Yu. Sokolov,
    R. Di Remigio, R. M. Richard, J. F. Gonthier, A. M. James,
    H. R. McAlexander, A. Kumar, M. Saitow, X. Wang, B. P. Pritchard,
    P. Verma, H. F. Schaefer III, K. Patkowski, R. A. King, E. F. Valeev,
    F. A. Evangelista, J. M. Turney, T. D. Crawford, and C. D. Sherrill,
    J. Chem. Theory Comput. 13(7) pp 3185--3197 (2017).
    (doi: 10.1021/acs.jctc.7b00174)


                         Additional Contributions by
    P. Kraus, H. Kruse, M. H. Lechner, M. C. Schieber, and R. A. Shaw

    -----------------------------------------------------------------------


    Psi4 started on: Friday, 18 January 2019 03:06PM

    Process ID: 58899
    Host:       csm-armcdona-m1
    PSIDATADIR: /Users/armcdona/miniconda/share/psi4
    Memory:     500.0 MiB
    Threads:    1
    
  ==> Input File <==

--------------------------------------------------------------------------
#! You can write anything you want; this is a test
  
molecule butanol {
C        0.008779      0.012379      1.105042
H        1.028245     -0.002162      1.503483
H       -0.516298      0.887528      1.500876
O       -0.665836     -1.157491      1.546933
H       -0.658019     -1.141072      2.519152
C        0.020566      0.028383     -0.416926
H       -1.011109     -0.010212     -0.788582
H        0.505740     -0.883948     -0.786022
C        0.732723      1.263125     -0.961818
H        1.765587      1.289355     -0.595489
H        0.236272      2.170272     -0.598070
C        0.742357      1.275395     -2.482041
H        1.260737      0.396365     -2.878202
H        1.257212      2.168129     -2.850647
H       -0.277105      1.282194     -2.880797
}

set basis cc-pVDZ
energy('scf')
--------------------------------------------------------------------------

*** tstart() called on csm-armcdona-m1
*** at Fri Jan 18 15:06:02 2019

   => Loading Basis Set <=

    Name: CC-PVDZ
    Role: ORBITAL
    Keyword: BASIS
    atoms 1, 6, 9, 12               entry C          line   138 file /Users/armcdona/miniconda/share/psi4/basis/cc-pvdz.gbs 
    atoms 2-3, 5, 7-8, 10-11, 13-15 entry H          line    22 file /Users/armcdona/miniconda/share/psi4/basis/cc-pvdz.gbs 
    atoms 4                         entry O          line   198 file /Users/armcdona/miniconda/share/psi4/basis/cc-pvdz.gbs 

    There are an even number of electrons - assuming singlet.
    Specify the multiplicity in the molecule input block.


         ---------------------------------------------------------
                                   SCF
            by Justin Turney, Rob Parrish, Andy Simmonett
                             and Daniel Smith
                              RHF Reference
                        1 Threads,    500 MiB Core
         ---------------------------------------------------------

  ==> Geometry <==

    Molecular point group: c1
    Full point group: C1

    Geometry (in Angstrom), charge = 0, multiplicity = 1:

       Center              X                  Y                   Z               Mass       
    ------------   -----------------  -----------------  -----------------  -----------------
         C           -0.140026222223    -0.239291597685     1.297094855091    12.000000000000
         H            0.879439777777    -0.253832597685     1.695535855091     1.007825032070
         H           -0.665103222223     0.635857402315     1.692928855091     1.007825032070
         O           -0.814641222223    -1.409161597685     1.738985855091    15.994914619560
         H           -0.806824222223    -1.392742597685     2.711204855091     1.007825032070
         C           -0.128239222223    -0.223287597685    -0.224873144909    12.000000000000
         H           -1.159914222223    -0.261882597685    -0.596529144909     1.007825032070
         H            0.356934777777    -1.135618597685    -0.593969144909     1.007825032070
         C            0.583917777777     1.011454402315    -0.769765144909    12.000000000000
         H            1.616781777777     1.037684402315    -0.403436144909     1.007825032070
         H            0.087466777777     1.918601402315    -0.406017144909     1.007825032070
         C            0.593551777777     1.023724402315    -2.289988144909    12.000000000000
         H            1.111931777777     0.144694402315    -2.686149144909     1.007825032070
         H            1.108406777777     1.916458402315    -2.658594144909     1.007825032070
         H           -0.425910222223     1.030523402315    -2.688744144909     1.007825032070

  Running in c1 symmetry.

  Rotational constants: A =      0.62893  B =      0.06638  C =      0.06287 [cm^-1]
  Rotational constants: A =  18854.70136  B =   1990.08863  C =   1884.70107 [MHz]
  Nuclear repulsion =  185.278360767531154

  Charge       = 0
  Multiplicity = 1
  Electrons    = 42
  Nalpha       = 21
  Nbeta        = 21

  ==> Algorithm <==

  SCF Algorithm Type is DF.
  DIIS enabled.
  MOM disabled.
  Fractional occupation disabled.
  Guess Type is SAD.
  Energy threshold   = 1.00e-06
  Density threshold  = 1.00e-06
  Integral threshold = 0.00e+00

  ==> Primary Basis <==

  Basis Set: CC-PVDZ
    Blend: CC-PVDZ
    Number of shells: 60
    Number of basis function: 120
    Number of Cartesian functions: 125
    Spherical Harmonics?: true
    Max angular momentum: 2

   => Loading Basis Set <=

    Name: (CC-PVDZ AUX)
    Role: JKFIT
    Keyword: DF_BASIS_SCF
    atoms 1, 6, 9, 12               entry C          line   121 file /Users/armcdona/miniconda/share/psi4/basis/cc-pvdz-jkfit.gbs 
    atoms 2-3, 5, 7-8, 10-11, 13-15 entry H          line    51 file /Users/armcdona/miniconda/share/psi4/basis/cc-pvdz-jkfit.gbs 
    atoms 4                         entry O          line   221 file /Users/armcdona/miniconda/share/psi4/basis/cc-pvdz-jkfit.gbs 

  ==> Pre-Iterations <==

   -------------------------------------------------------
    Irrep   Nso     Nmo     Nalpha   Nbeta   Ndocc  Nsocc
   -------------------------------------------------------
     A        120     120       0       0       0       0
   -------------------------------------------------------
    Total     120     120      21      21      21       0
   -------------------------------------------------------

  ==> Integral Setup <==

  DFHelper Memory: AOs need 0.078 [GiB]; user supplied 0.366 [GiB]. Using in-core AOs.

  ==> MemDFJK: Density-Fitted J/K Matrices <==

    J tasked:                   Yes
    K tasked:                   Yes
    wK tasked:                   No
    OpenMP threads:               1
    Memory (MB):                375
    Algorithm:                 Core
    Schwarz Cutoff:           1E-12
    Mask sparsity (%):       3.5833
    Fitting Condition:        1E-12

   => Auxiliary Basis Set <=

  Basis Set: (CC-PVDZ AUX)
    Blend: CC-PVDZ-JKFIT
    Number of shells: 210
    Number of basis function: 580
    Number of Cartesian functions: 655
    Spherical Harmonics?: true
    Max angular momentum: 3

  Minimum eigenvalue in the overlap matrix is 3.0186181847E-03.
  Using Symmetric Orthogonalization.

  SCF Guess: Superposition of Atomic Densities via on-the-fly atomic UHF.

  ==> Iterations <==

                           Total Energy        Delta E     RMS |[F,P]|

   @DF-RHF iter   0:  -233.60285659152166   -2.33603e+02   3.29247e-02 
   @DF-RHF iter   1:  -232.02043484600790    1.58242e+00   3.73295e-03 
   @DF-RHF iter   2:  -232.14615810325856   -1.25723e-01   1.36585e-03 DIIS
   @DF-RHF iter   3:  -232.16281769982919   -1.66596e-02   4.60529e-04 DIIS
   @DF-RHF iter   4:  -232.16548003989087   -2.66234e-03   7.88983e-05 DIIS
   @DF-RHF iter   5:  -232.16556840574484   -8.83659e-05   2.85625e-05 DIIS
   @DF-RHF iter   6:  -232.16557847794832   -1.00722e-05   9.03006e-06 DIIS
   @DF-RHF iter   7:  -232.16557971438667   -1.23644e-06   2.79710e-06 DIIS
   @DF-RHF iter   8:  -232.16557983472831   -1.20342e-07   9.72177e-07 DIIS

  ==> Post-Iterations <==

    Orbital Energies [Eh]
    ---------------------

    Doubly Occupied:                                                      

       1A    -20.545398     2A    -11.272079     3A    -11.224178  
       4A    -11.218797     5A    -11.218449     6A     -1.347104  
       7A     -1.071648     8A     -0.971468     9A     -0.849756  
      10A     -0.793362    11A     -0.676754    12A     -0.657387  
      13A     -0.602077    14A     -0.589095    15A     -0.559974  
      16A     -0.518312    17A     -0.506412    18A     -0.474363  
      19A     -0.468697    20A     -0.459583    21A     -0.433083  

    Virtual:                                                              

      22A      0.182632    23A      0.189680    24A      0.217317  
      25A      0.219550    26A      0.234585    27A      0.278644  
      28A      0.281419    29A      0.289295    30A      0.293283  
      31A      0.314675    32A      0.350903    33A      0.403230  
      34A      0.421395    35A      0.457262    36A      0.588496  
      37A      0.600905    38A      0.613071    39A      0.644746  
      40A      0.660510    41A      0.734931    42A      0.759143  
      43A      0.803591    44A      0.817175    45A      0.871389  
      46A      0.873051    47A      0.880667    48A      0.885265  
      49A      0.897565    50A      0.899168    51A      0.908815  
      52A      0.914964    53A      0.924615    54A      0.928540  
      55A      0.961703    56A      0.982841    57A      0.998127  
      58A      1.127356    59A      1.145565    60A      1.153342  
      61A      1.259491    62A      1.332461    63A      1.345321  
      64A      1.457207    65A      1.459157    66A      1.463220  
      67A      1.475626    68A      1.489171    69A      1.541512  
      70A      1.576793    71A      1.603154    72A      1.691459  
      73A      1.712974    74A      1.745248    75A      1.798649  
      76A      1.860690    77A      1.885840    78A      1.894373  
      79A      1.907015    80A      1.912244    81A      1.927379  
      82A      1.953862    83A      1.954517    84A      1.984100  
      85A      1.984704    86A      1.992052    87A      2.009847  
      88A      2.021282    89A      2.036930    90A      2.083326  
      91A      2.113599    92A      2.158947    93A      2.209677  
      94A      2.221006    95A      2.259609    96A      2.300628  
      97A      2.329449    98A      2.381827    99A      2.438862  
     100A      2.491807   101A      2.510389   102A      2.516626  
     103A      2.598414   104A      2.615047   105A      2.627590  
     106A      2.641847   107A      2.727654   108A      2.769644  
     109A      2.796213   110A      2.825368   111A      2.856773  
     112A      2.903371   113A      2.942185   114A      3.025930  
     115A      3.057358   116A      3.339578   117A      3.419685  
     118A      3.477475   119A      3.616354   120A      4.116926  

    Final Occupation by Irrep:
              A 
    DOCC [    21 ]

  Energy converged.

  @DF-RHF Final Energy:  -232.16557983472831

   => Energetics <=

    Nuclear Repulsion Energy =            185.2783607675311544
    One-Electron Energy =                -681.9719166814192022
    Two-Electron Energy =                 264.5279760791597710
    Total Energy =                       -232.1655798347283053



Properties will be evaluated at   0.000000,   0.000000,   0.000000 [a0]

Properties computed using the SCF density matrix

  Nuclear Dipole Moment: [e a0]
     X:     1.9678      Y:     3.4054      Z:    -3.6794

  Electronic Dipole Moment: [e a0]
     X:    -1.6928      Y:    -2.9269      Z:     4.0482

  Dipole Moment: [e a0]
     X:     0.2750      Y:     0.4784      Z:     0.3688     Total:     0.6637

  Dipole Moment: [D]
     X:     0.6989      Y:     1.2161      Z:     0.9373     Total:     1.6870


*** tstop() called on csm-armcdona-m1 at Fri Jan 18 15:06:06 2019
Module time:
	user time   =       2.95 seconds =       0.05 minutes
	system time =       0.15 seconds =       0.00 minutes
	total time  =          4 seconds =       0.07 minutes
Total time:
	user time   =       2.95 seconds =       0.05 minutes
	system time =       0.15 seconds =       0.00 minutes
	total time  =          4 seconds =       0.07 minutes

    Psi4 stopped on: Friday, 18 January 2019 03:06PM
    Psi4 wall time for execution: 0:00:03.62

*** Psi4 exiting successfully. Buy a developer a beer!
