
    -----------------------------------------------------------------------
          Psi4: An Open-Source Ab Initio Electronic Structure Package
                               Psi4 1.2.1 release

                         Git: Rev {HEAD} 406f4de 


    R. M. Parrish, L. A. Burns, D. G. A. Smith, A. C. Simmonett,
    A. E. DePrince III, E. G. Hohenstein, U. Bozkaya, A. Yu. Sokolov,
    R. Di Remigio, R. M. Richard, J. F. Gonthier, A. M. James,
    H. R. McAlexander, A. Kumar, M. Saitow, X. Wang, B. P. Pritchard,
    P. Verma, H. F. Schaefer III, K. Patkowski, R. A. King, E. F. Valeev,
    F. A. Evangelista, J. M. Turney, T. D. Crawford, and C. D. Sherrill,
    J. Chem. Theory Comput. 13(7) pp 3185--3197 (2017).
    (doi: 10.1021/acs.jctc.7b00174)


                         Additional Contributions by
    P. Kraus, H. Kruse, M. H. Lechner, M. C. Schieber, and R. A. Shaw

    -----------------------------------------------------------------------


    Psi4 started on: Friday, 18 January 2019 03:09PM

    Process ID: 58992
    Host:       csm-armcdona-m1
    PSIDATADIR: /Users/armcdona/miniconda/share/psi4
    Memory:     500.0 MiB
    Threads:    1
    
  ==> Input File <==

--------------------------------------------------------------------------
#! You can write anything you want; this is a test
  
molecule decanol {
C       -0.070772      0.027709      1.193294
H        0.933172      0.025891      1.629639
H       -0.608453      0.916312      1.539038
O       -0.764251     -1.125470      1.649797
H       -0.792487     -1.075534      2.620492
C       -0.001819     -0.009064     -0.327784
H       -1.019134     -0.055225     -0.735759
H        0.489500     -0.938936     -0.636028
C        0.737522      1.206568     -0.884615
H        1.771989      1.211395     -0.520174
H        0.263380      2.118090     -0.499545
C        0.731035      1.278547     -2.415332
H        1.143218      2.252568     -2.700856
H       -0.302753      1.252248     -2.780301
C        1.543857      0.163086     -3.078261
H        2.577754      0.188187     -2.713558
H        1.129661     -0.809659     -2.790379
C        1.536248      0.231201     -4.610184
H        1.985093     -0.696398     -4.982746
H        0.501537      0.251070     -4.972890
C        2.307009      1.429892     -5.170031
H        3.341798      1.408344     -4.807592
H        1.860699      2.359146     -4.799323
C        2.300207      1.494510     -6.701129
H        2.742062      2.452492     -7.002913
H        1.265493      1.496577     -7.065021
C        3.080164      0.358143     -7.363626
H        4.099736      0.322242     -6.963008
H        2.609277     -0.606179     -7.146187
C        3.143949      0.536546     -8.873083
H        3.702074     -0.287402     -9.328687
H        3.645680      1.472978     -9.137088
H        2.139909      0.549202     -9.309091
}

set basis cc-pVDZ
energy('scf')
--------------------------------------------------------------------------

*** tstart() called on csm-armcdona-m1
*** at Fri Jan 18 15:09:00 2019

   => Loading Basis Set <=

    Name: CC-PVDZ
    Role: ORBITAL
    Keyword: BASIS
    atoms 1, 6, 9, 12, 15, 18, 21, 24, 27, 30                                 entry C          line   138 file /Users/armcdona/miniconda/share/psi4/basis/cc-pvdz.gbs 
    atoms 2-3, 5, 7-8, 10-11, 13-14, 16-17, 19-20, 22-23, 25-26, 28-29, 31-33 entry H          line    22 file /Users/armcdona/miniconda/share/psi4/basis/cc-pvdz.gbs 
    atoms 4                                                                   entry O          line   198 file /Users/armcdona/miniconda/share/psi4/basis/cc-pvdz.gbs 

    There are an even number of electrons - assuming singlet.
    Specify the multiplicity in the molecule input block.


         ---------------------------------------------------------
                                   SCF
            by Justin Turney, Rob Parrish, Andy Simmonett
                             and Daniel Smith
                              RHF Reference
                        1 Threads,    500 MiB Core
         ---------------------------------------------------------

  ==> Geometry <==

    Molecular point group: c1
    Full point group: C1

    Geometry (in Angstrom), charge = 0, multiplicity = 1:

       Center              X                  Y                   Z               Mass       
    ------------   -----------------  -----------------  -----------------  -----------------
         C           -1.368171372860    -0.456078896703     4.456507497827    12.000000000000
         H           -0.364227372860    -0.457896896703     4.892852497827     1.007825032070
         H           -1.905852372860     0.432524103297     4.802251497827     1.007825032070
         O           -2.061650372860    -1.609257896703     4.913010497827    15.994914619560
         H           -2.089886372860    -1.559321896703     5.883705497827     1.007825032070
         C           -1.299218372860    -0.492851896703     2.935429497827    12.000000000000
         H           -2.316533372860    -0.539012896703     2.527454497827     1.007825032070
         H           -0.807899372860    -1.422723896703     2.627185497827     1.007825032070
         C           -0.559877372860     0.722780103297     2.378598497827    12.000000000000
         H            0.474589627140     0.727607103297     2.743039497827     1.007825032070
         H           -1.034019372860     1.634302103297     2.763668497827     1.007825032070
         C           -0.566364372860     0.794759103297     0.847881497827    12.000000000000
         H           -0.154181372860     1.768780103297     0.562357497827     1.007825032070
         H           -1.600152372860     0.768460103297     0.482912497827     1.007825032070
         C            0.246457627140    -0.320701896703     0.184952497827    12.000000000000
         H            1.280354627140    -0.295600896703     0.549655497827     1.007825032070
         H           -0.167738372860    -1.293446896703     0.472834497827     1.007825032070
         C            0.238848627140    -0.252586896703    -1.346970502173    12.000000000000
         H            0.687693627140    -1.180185896703    -1.719532502173     1.007825032070
         H           -0.795862372860    -0.232717896703    -1.709676502173     1.007825032070
         C            1.009609627140     0.946104103297    -1.906817502173    12.000000000000
         H            2.044398627140     0.924556103297    -1.544378502173     1.007825032070
         H            0.563299627140     1.875358103297    -1.536109502173     1.007825032070
         C            1.002807627140     1.010722103297    -3.437915502173    12.000000000000
         H            1.444662627140     1.968704103297    -3.739699502173     1.007825032070
         H           -0.031906372860     1.012789103297    -3.801807502173     1.007825032070
         C            1.782764627140    -0.125644896703    -4.100412502173    12.000000000000
         H            2.802336627140    -0.161545896703    -3.699794502173     1.007825032070
         H            1.311877627140    -1.089966896703    -3.882973502173     1.007825032070
         C            1.846549627140     0.052758103297    -5.609869502173    12.000000000000
         H            2.404674627140    -0.771189896703    -6.065473502173     1.007825032070
         H            2.348280627140     0.989190103297    -5.873874502173     1.007825032070
         H            0.842509627140     0.065414103297    -6.045877502173     1.007825032070

  Running in c1 symmetry.

  Rotational constants: A =      0.14707  B =      0.00774  C =      0.00753 [cm^-1]
  Rotational constants: A =   4409.02332  B =    232.01047  C =    225.63732 [MHz]
  Nuclear repulsion =  613.759712807785263

  Charge       = 0
  Multiplicity = 1
  Electrons    = 90
  Nalpha       = 45
  Nbeta        = 45

  ==> Algorithm <==

  SCF Algorithm Type is DF.
  DIIS enabled.
  MOM disabled.
  Fractional occupation disabled.
  Guess Type is SAD.
  Energy threshold   = 1.00e-06
  Density threshold  = 1.00e-06
  Integral threshold = 0.00e+00

  ==> Primary Basis <==

  Basis Set: CC-PVDZ
    Blend: CC-PVDZ
    Number of shells: 132
    Number of basis function: 264
    Number of Cartesian functions: 275
    Spherical Harmonics?: true
    Max angular momentum: 2

   => Loading Basis Set <=

    Name: (CC-PVDZ AUX)
    Role: JKFIT
    Keyword: DF_BASIS_SCF
    atoms 1, 6, 9, 12, 15, 18, 21, 24, 27, 30                                 entry C          line   121 file /Users/armcdona/miniconda/share/psi4/basis/cc-pvdz-jkfit.gbs 
    atoms 2-3, 5, 7-8, 10-11, 13-14, 16-17, 19-20, 22-23, 25-26, 28-29, 31-33 entry H          line    51 file /Users/armcdona/miniconda/share/psi4/basis/cc-pvdz-jkfit.gbs 
    atoms 4                                                                   entry O          line   221 file /Users/armcdona/miniconda/share/psi4/basis/cc-pvdz-jkfit.gbs 

  ==> Pre-Iterations <==

   -------------------------------------------------------
    Irrep   Nso     Nmo     Nalpha   Nbeta   Ndocc  Nsocc
   -------------------------------------------------------
     A        264     264       0       0       0       0
   -------------------------------------------------------
    Total     264     264      45      45      45       0
   -------------------------------------------------------

  ==> Integral Setup <==

  ==> DiskDFJK: Density-Fitted J/K Matrices <==

    J tasked:                  Yes
    K tasked:                  Yes
    wK tasked:                  No
    OpenMP threads:              1
    Integrals threads:           1
    Memory (MB):               375
    Algorithm:                Core
    Integral Cache:           NONE
    Schwarz Cutoff:          1E-12
    Fitting Condition:       1E-12

   => Auxiliary Basis Set <=

  Basis Set: (CC-PVDZ AUX)
    Blend: CC-PVDZ-JKFIT
    Number of shells: 462
    Number of basis function: 1276
    Number of Cartesian functions: 1441
    Spherical Harmonics?: true
    Max angular momentum: 3

  Minimum eigenvalue in the overlap matrix is 1.7608575820E-03.
  Using Symmetric Orthogonalization.

  SCF Guess: Superposition of Atomic Densities via on-the-fly atomic UHF.

  ==> Iterations <==

                           Total Energy        Delta E     RMS |[F,P]|

   @DF-RHF iter   0:  -471.60882931305503   -4.71609e+02   2.42456e-02 
   @DF-RHF iter   1:  -466.11869259367580    5.49014e+00   2.09504e-03 
   @DF-RHF iter   2:  -466.35495102764708   -2.36258e-01   6.98925e-04 DIIS
   @DF-RHF iter   3:  -466.37876392334704   -2.38129e-02   3.14143e-04 DIIS
   @DF-RHF iter   4:  -466.38330786341015   -4.54394e-03   6.62419e-05 DIIS
   @DF-RHF iter   5:  -466.38358651258329   -2.78649e-04   2.10676e-05 DIIS
   @DF-RHF iter   6:  -466.38361966226512   -3.31497e-05   6.65110e-06 DIIS
   @DF-RHF iter   7:  -466.38362362885130   -3.96659e-06   2.01587e-06 DIIS
   @DF-RHF iter   8:  -466.38362414000858   -5.11157e-07   5.82922e-07 DIIS

  ==> Post-Iterations <==

    Orbital Energies [Eh]
    ---------------------

    Doubly Occupied:                                                      

       1A    -20.544924     2A    -11.271443     3A    -11.221630  
       4A    -11.218516     5A    -11.217649     6A    -11.217329  
       7A    -11.217062     8A    -11.216774     9A    -11.216425  
      10A    -11.215826    11A    -11.214610    12A     -1.346531  
      13A     -1.096640    14A     -1.074172    15A     -1.036298  
      16A     -0.988006    17A     -0.938715    18A     -0.871717  
      19A     -0.837715    20A     -0.807577    21A     -0.779569  
      22A     -0.761436    23A     -0.676461    24A     -0.653016  
      25A     -0.631758    26A     -0.621751    27A     -0.618264  
      28A     -0.593906    29A     -0.577695    30A     -0.570125  
      31A     -0.557145    32A     -0.537455    33A     -0.532267  
      34A     -0.520767    35A     -0.498108    36A     -0.491891  
      37A     -0.483412    38A     -0.472722    39A     -0.462896  
      40A     -0.461339    41A     -0.456784    42A     -0.449645  
      43A     -0.434637    44A     -0.430172    45A     -0.427457  

    Virtual:                                                              

      46A      0.184275    47A      0.188127    48A      0.192455  
      49A      0.199689    50A      0.201184    51A      0.207033  
      52A      0.222209    53A      0.226863    54A      0.236988  
      55A      0.254059    56A      0.260805    57A      0.269968  
      58A      0.273712    59A      0.282636    60A      0.285136  
      61A      0.296316    62A      0.303115    63A      0.306778  
      64A      0.315361    65A      0.324450    66A      0.333449  
      67A      0.348527    68A      0.365149    69A      0.388031  
      70A      0.402409    71A      0.404459    72A      0.415684  
      73A      0.428048    74A      0.433586    75A      0.443224  
      76A      0.450999    77A      0.481153    78A      0.586243  
      79A      0.596774    80A      0.599364    81A      0.605011  
      82A      0.615538    83A      0.619112    84A      0.624761  
      85A      0.644434    86A      0.648682    87A      0.672928  
      88A      0.691510    89A      0.722415    90A      0.737326  
      91A      0.765151    92A      0.798302    93A      0.810333  
      94A      0.829377    95A      0.841473    96A      0.853652  
      97A      0.858845    98A      0.863280    99A      0.867493  
     100A      0.871010   101A      0.877711   102A      0.888410  
     103A      0.893313   104A      0.894306   105A      0.897257  
     106A      0.899821   107A      0.904682   108A      0.908048  
     109A      0.911498   110A      0.917611   111A      0.919786  
     112A      0.921376   113A      0.924515   114A      0.930279  
     115A      0.934294   116A      0.943053   117A      0.946295  
     118A      0.955387   119A      0.959221   120A      0.964146  
     121A      0.968403   122A      0.974375   123A      0.987362  
     124A      0.996125   125A      1.039796   126A      1.049263  
     127A      1.063542   128A      1.114394   129A      1.116833  
     130A      1.132770   131A      1.140533   132A      1.153978  
     133A      1.257107   134A      1.283379   135A      1.286800  
     136A      1.298717   137A      1.317683   138A      1.333274  
     139A      1.333973   140A      1.393673   141A      1.410275  
     142A      1.434242   143A      1.459898   144A      1.467554  
     145A      1.475636   146A      1.481650   147A      1.491976  
     148A      1.520305   149A      1.535284   150A      1.545421  
     151A      1.551094   152A      1.566599   153A      1.586057  
     154A      1.589418   155A      1.604874   156A      1.673967  
     157A      1.688580   158A      1.694460   159A      1.701741  
     160A      1.734047   161A      1.761670   162A      1.772679  
     163A      1.797303   164A      1.805206   165A      1.829548  
     166A      1.863787   167A      1.883035   168A      1.883256  
     169A      1.891419   170A      1.905390   171A      1.905782  
     172A      1.910664   173A      1.921389   174A      1.928119  
     175A      1.938609   176A      1.944070   177A      1.948254  
     178A      1.950417   179A      1.957081   180A      1.961409  
     181A      1.969099   182A      1.979921   183A      1.980096  
     184A      1.986603   185A      1.988448   186A      1.992677  
     187A      1.995867   188A      2.005744   189A      2.007440  
     190A      2.010060   191A      2.023353   192A      2.036462  
     193A      2.037779   194A      2.051387   195A      2.057734  
     196A      2.072983   197A      2.080063   198A      2.093156  
     199A      2.105377   200A      2.117404   201A      2.142284  
     202A      2.147754   203A      2.171183   204A      2.191824  
     205A      2.208620   206A      2.216355   207A      2.240304  
     208A      2.251348   209A      2.261277   210A      2.279159  
     211A      2.294068   212A      2.306525   213A      2.320744  
     214A      2.331045   215A      2.334230   216A      2.355336  
     217A      2.387727   218A      2.414315   219A      2.424510  
     220A      2.438690   221A      2.489760   222A      2.500998  
     223A      2.514977   224A      2.524207   225A      2.550938  
     226A      2.557222   227A      2.581716   228A      2.583879  
     229A      2.595819   230A      2.606466   231A      2.623569  
     232A      2.630039   233A      2.632982   234A      2.641630  
     235A      2.652510   236A      2.666648   237A      2.678972  
     238A      2.705862   239A      2.736135   240A      2.749589  
     241A      2.764209   242A      2.776642   243A      2.810506  
     244A      2.825877   245A      2.835399   246A      2.861689  
     247A      2.877339   248A      2.885057   249A      2.900117  
     250A      2.919942   251A      2.932878   252A      2.961634  
     253A      2.993999   254A      3.044867   255A      3.049743  
     256A      3.079735   257A      3.099851   258A      3.136759  
     259A      3.137853   260A      3.339864   261A      3.420608  
     262A      3.479470   263A      3.620223   264A      4.117830  

    Final Occupation by Irrep:
              A 
    DOCC [    45 ]

  Energy converged.

  @DF-RHF Final Energy:  -466.38362414000858

   => Energetics <=

    Nuclear Repulsion Energy =            613.7597128077852631
    One-Electron Energy =               -1849.3460979523092647
    Two-Electron Energy =                 769.2027610045154233
    Total Energy =                       -466.3836241400085783



Properties will be evaluated at   0.000000,   0.000000,   0.000000 [a0]

Properties computed using the SCF density matrix

  Nuclear Dipole Moment: [e a0]
     X:     4.6178      Y:     2.9585      Z:   -10.5804

  Electronic Dipole Moment: [e a0]
     X:    -4.3551      Y:    -2.4937      Z:    10.9301

  Dipole Moment: [e a0]
     X:     0.2627      Y:     0.4648      Z:     0.3497     Total:     0.6382

  Dipole Moment: [D]
     X:     0.6677      Y:     1.1813      Z:     0.8889     Total:     1.6222


*** tstop() called on csm-armcdona-m1 at Fri Jan 18 15:09:46 2019
Module time:
	user time   =      45.03 seconds =       0.75 minutes
	system time =       0.72 seconds =       0.01 minutes
	total time  =         46 seconds =       0.77 minutes
Total time:
	user time   =      45.03 seconds =       0.75 minutes
	system time =       0.72 seconds =       0.01 minutes
	total time  =         46 seconds =       0.77 minutes

    Psi4 stopped on: Friday, 18 January 2019 03:09PM
    Psi4 wall time for execution: 0:00:46.45

*** Psi4 exiting successfully. Buy a developer a beer!
