
    -----------------------------------------------------------------------
          Psi4: An Open-Source Ab Initio Electronic Structure Package
                               Psi4 1.1 release

                         Git: Rev {HEAD} add49b9 


    R. M. Parrish, L. A. Burns, D. G. A. Smith, A. C. Simmonett,
    A. E. DePrince III, E. G. Hohenstein, U. Bozkaya, A. Yu. Sokolov,
    R. Di Remigio, R. M. Richard, J. F. Gonthier, A. M. James,
    H. R. McAlexander, A. Kumar, M. Saitow, X. Wang, B. P. Pritchard,
    P. Verma, H. F. Schaefer III, K. Patkowski, R. A. King, E. F. Valeev,
    F. A. Evangelista, J. M. Turney, T. D. Crawford, and C. D. Sherrill,
    J. Chem. Theory Comput. in press (2017).
    (doi: 10.1021/acs.jctc.7b00174)

    -----------------------------------------------------------------------


    Psi4 started on: Tuesday, 27 June 2017 12:10PM

    Process ID:  10591
    PSIDATADIR: /Users/armcdona/psi4conda/share/psi4
    Memory:     500.0 MiB
    Threads:    1
    
  ==> Input File <==

--------------------------------------------------------------------------
#! You can write anything you want; this is a test

molecule ethanol {
H        0.011242      0.005860      0.004848
C       -0.013516     -0.004055      1.099557
H        1.026838      0.005859      1.441119
H       -0.508712      0.905913      1.449714
C       -0.729377     -1.238026      1.605747
H       -1.761756     -1.258491      1.244036
H       -0.732480     -1.258491      2.699654
O       -0.054692     -2.392519      1.128673
H       -0.536299     -3.165575      1.469220
}

set basis cc-pVDZ
energy('scf')--------------------------------------------------------------------------

*** tstart() called on csm-armcdona-m1
*** at Tue Jun 27 12:10:00 2017

   => Loading Basis Set <=

    Name: CC-PVDZ
    Role: ORBITAL
    Keyword: BASIS
    atoms 1, 3-4, 6-7, 9 entry H          line    20 file /Users/armcdona/psi4conda/share/psi4/basis/cc-pvdz.gbs 
    atoms 2, 5           entry C          line   130 file /Users/armcdona/psi4conda/share/psi4/basis/cc-pvdz.gbs 
    atoms 8              entry O          line   190 file /Users/armcdona/psi4conda/share/psi4/basis/cc-pvdz.gbs 

    There are an even number of electrons - assuming singlet.
    Specify the multiplicity in the molecule input block.


         ---------------------------------------------------------
                                   SCF
            by Justin Turney, Rob Parrish, and Andy Simmonett
                              RHF Reference
                        1 Threads,    500 MiB Core
         ---------------------------------------------------------

  ==> Geometry <==

    Molecular point group: c1
    Full point group: C1

    Geometry (in Angstrom), charge = 0, multiplicity = 1:

       Center              X                  Y                   Z               Mass       
    ------------   -----------------  -----------------  -----------------  -----------------
           H          0.278612764252     1.265047047666    -1.274211449480     1.007825032070
           C          0.253854764252     1.255132047666    -0.179502449480    12.000000000000
           H          1.294208764252     1.265046047666     0.162059550520     1.007825032070
           H         -0.241341235748     2.165100047666     0.170654550520     1.007825032070
           C         -0.462006235748     0.021161047666     0.326687550520    12.000000000000
           H         -1.494385235748     0.000696047666    -0.035023449480     1.007825032070
           H         -0.465109235748     0.000696047666     1.420594550520     1.007825032070
           O          0.212678764252    -1.133331952334    -0.150386449480    15.994914619560
           H         -0.268928235748    -1.906387952334     0.190160550520     1.007825032070

  Running in c1 symmetry.

  Rotational constants: A =      1.19639  B =      0.31014  C =      0.27136 [cm^-1]
  Rotational constants: A =  35866.92932  B =   9297.74675  C =   8135.03541 [MHz]
  Nuclear repulsion =   81.804973313181932

  Charge       = 0
  Multiplicity = 1
  Electrons    = 26
  Nalpha       = 13
  Nbeta        = 13

  ==> Algorithm <==

  SCF Algorithm Type is DF.
  DIIS enabled.
  MOM disabled.
  Fractional occupation disabled.
  Guess Type is SAD.
  Energy threshold   = 1.00e-06
  Density threshold  = 1.00e-06
  Integral threshold = 0.00e+00

  ==> Primary Basis <==

  Basis Set: CC-PVDZ
    Blend: CC-PVDZ
    Number of shells: 36
    Number of basis function: 72
    Number of Cartesian functions: 75
    Spherical Harmonics?: true
    Max angular momentum: 2

   => Loading Basis Set <=

    Name: (CC-PVDZ AUX)
    Role: JKFIT
    Keyword: DF_BASIS_SCF
    atoms 1, 3-4, 6-7, 9 entry H          line    50 file /Users/armcdona/psi4conda/share/psi4/basis/cc-pvdz-jkfit.gbs 
    atoms 2, 5           entry C          line   120 file /Users/armcdona/psi4conda/share/psi4/basis/cc-pvdz-jkfit.gbs 
    atoms 8              entry O          line   220 file /Users/armcdona/psi4conda/share/psi4/basis/cc-pvdz-jkfit.gbs 

  ==> Pre-Iterations <==

   -------------------------------------------------------
    Irrep   Nso     Nmo     Nalpha   Nbeta   Ndocc  Nsocc
   -------------------------------------------------------
     A         72      72       0       0       0       0
   -------------------------------------------------------
    Total      72      72      13      13      13       0
   -------------------------------------------------------

  ==> Integral Setup <==

  ==> DFJK: Density-Fitted J/K Matrices <==

    J tasked:                  Yes
    K tasked:                  Yes
    wK tasked:                  No
    OpenMP threads:              1
    Integrals threads:           1
    Memory (MB):               375
    Algorithm:                Core
    Integral Cache:           NONE
    Schwarz Cutoff:          1E-12
    Fitting Condition:       1E-12

   => Auxiliary Basis Set <=

  Basis Set: (CC-PVDZ AUX)
    Blend: CC-PVDZ-JKFIT
    Number of shells: 126
    Number of basis function: 348
    Number of Cartesian functions: 393
    Spherical Harmonics?: true
    Max angular momentum: 3

  Minimum eigenvalue in the overlap matrix is 6.1615207161E-03.
  Using Symmetric Orthogonalization.

  SCF Guess: Superposition of Atomic Densities via on-the-fly atomic UHF.

  ==> Iterations <==

                           Total Energy        Delta E     RMS |[F,P]|

   @DF-RHF iter   0:  -155.10365249375823   -1.55104e+02   4.53015e-02 
   @DF-RHF iter   1:  -154.01069491612421    1.09296e+00   4.72706e-03 
   @DF-RHF iter   2:  -154.08072318140574   -7.00283e-02   1.85857e-03 DIIS
   @DF-RHF iter   3:  -154.08948719255255   -8.76401e-03   6.74889e-04 DIIS
   @DF-RHF iter   4:  -154.09117177055145   -1.68458e-03   1.58963e-04 DIIS
   @DF-RHF iter   5:  -154.09128893560870   -1.17165e-04   4.54749e-05 DIIS
   @DF-RHF iter   6:  -154.09130079349944   -1.18579e-05   1.31995e-05 DIIS
   @DF-RHF iter   7:  -154.09130170057145   -9.07072e-07   2.83994e-06 DIIS
   @DF-RHF iter   8:  -154.09130176573018   -6.51587e-08   7.05545e-07 DIIS

  ==> Post-Iterations <==

    Orbital Energies (a.u.)
    -----------------------

    Doubly Occupied:                                                      

       1A    -20.546800     2A    -11.275095     3A    -11.219194  
       4A     -1.348904     5A     -1.008482     6A     -0.830928  
       7A     -0.687787     8A     -0.642241     9A     -0.566722  
      10A     -0.530314    11A     -0.519527    12A     -0.481883  
      13A     -0.433845  

    Virtual:                                                              

      14A      0.180940    15A      0.215018    16A      0.246070  
      17A      0.251127    18A      0.267963    19A      0.292938  
      20A      0.381996    21A      0.396231    22A      0.603706  
      23A      0.615847    24A      0.664225    25A      0.752044  
      26A      0.757291    27A      0.804155    28A      0.864841  
      29A      0.872855    30A      0.889502    31A      0.896591  
      32A      0.907855    33A      0.940941    34A      1.131195  
      35A      1.155522    36A      1.172297    37A      1.258058  
      38A      1.331160    39A      1.426371    40A      1.468358  
      41A      1.517174    42A      1.567678    43A      1.599506  
      44A      1.691808    45A      1.783132    46A      1.866083  
      47A      1.890906    48A      1.892378    49A      1.915291  
      50A      1.939375    51A      1.972358    52A      1.983727  
      53A      2.003589    54A      2.100718    55A      2.199911  
      56A      2.243703    57A      2.282336    58A      2.316926  
      59A      2.469974    60A      2.516843    61A      2.524986  
      62A      2.586064    63A      2.756948    64A      2.775491  
      65A      2.808122    66A      2.899507    67A      2.915802  
      68A      3.330513    69A      3.407987    70A      3.474254  
      71A      3.601498    72A      4.107129  

    Final Occupation by Irrep:
              A 
    DOCC [    13 ]

  Energy converged.

  @DF-RHF Final Energy:  -154.09130176573018

   => Energetics <=

    Nuclear Repulsion Energy =             81.8049733131819323
    One-Electron Energy =                -371.6091065733360210
    Two-Electron Energy =                 135.7128314944239378
    DFT Exchange-Correlation Energy =       0.0000000000000000
    Empirical Dispersion Energy =           0.0000000000000000
    PCM Polarization Energy =               0.0000000000000000
    EFP Energy =                            0.0000000000000000
    Total Energy =                       -154.0913017657301793



Properties will be evaluated at   0.000000,   0.000000,   0.000000 Bohr

Properties computed using the SCF density matrix

  Nuclear Dipole Moment: (a.u.)
     X:    -0.8398      Y:     2.6103      Z:     0.5939

  Electronic Dipole Moment: (a.u.)
     X:     0.2905      Y:    -2.6019      Z:    -0.2054

  Dipole Moment: (a.u.)
     X:    -0.5493      Y:     0.0084      Z:     0.3884     Total:     0.6728

  Dipole Moment: (Debye)
     X:    -1.3962      Y:     0.0213      Z:     0.9873     Total:     1.7101


*** tstop() called on csm-armcdona-m1 at Tue Jun 27 12:10:01 2017
Module time:
	user time   =       1.10 seconds =       0.02 minutes
	system time =       0.06 seconds =       0.00 minutes
	total time  =          1 seconds =       0.02 minutes
Total time:
	user time   =       1.10 seconds =       0.02 minutes
	system time =       0.06 seconds =       0.00 minutes
	total time  =          1 seconds =       0.02 minutes

*** Psi4 exiting successfully. Buy a developer a beer!
