
    -----------------------------------------------------------------------
          Psi4: An Open-Source Ab Initio Electronic Structure Package
                               Psi4 1.2.1 release

                         Git: Rev {HEAD} 406f4de 


    R. M. Parrish, L. A. Burns, D. G. A. Smith, A. C. Simmonett,
    A. E. DePrince III, E. G. Hohenstein, U. Bozkaya, A. Yu. Sokolov,
    R. Di Remigio, R. M. Richard, J. F. Gonthier, A. M. James,
    H. R. McAlexander, A. Kumar, M. Saitow, X. Wang, B. P. Pritchard,
    P. Verma, H. F. Schaefer III, K. Patkowski, R. A. King, E. F. Valeev,
    F. A. Evangelista, J. M. Turney, T. D. Crawford, and C. D. Sherrill,
    J. Chem. Theory Comput. 13(7) pp 3185--3197 (2017).
    (doi: 10.1021/acs.jctc.7b00174)


                         Additional Contributions by
    P. Kraus, H. Kruse, M. H. Lechner, M. C. Schieber, and R. A. Shaw

    -----------------------------------------------------------------------


    Psi4 started on: Friday, 18 January 2019 03:05PM

    Process ID: 58877
    Host:       csm-armcdona-m1
    PSIDATADIR: /Users/armcdona/miniconda/share/psi4
    Memory:     500.0 MiB
    Threads:    1
    
  ==> Input File <==

--------------------------------------------------------------------------
#! Title line

molecule methanol {
H        0.010646      0.018443      0.000720
C        0.006559      0.011360      1.093219
H        1.036175      0.003642      1.459213
H       -0.514932      0.899176      1.459215
O       -0.664521     -1.150984      1.543675
H       -0.652116     -1.129499      2.515708
}

set basis cc-pVDZ
energy('scf')
--------------------------------------------------------------------------

*** tstart() called on csm-armcdona-m1
*** at Fri Jan 18 15:05:28 2019

   => Loading Basis Set <=

    Name: CC-PVDZ
    Role: ORBITAL
    Keyword: BASIS
    atoms 1, 3-4, 6 entry H          line    22 file /Users/armcdona/miniconda/share/psi4/basis/cc-pvdz.gbs 
    atoms 2         entry C          line   138 file /Users/armcdona/miniconda/share/psi4/basis/cc-pvdz.gbs 
    atoms 5         entry O          line   198 file /Users/armcdona/miniconda/share/psi4/basis/cc-pvdz.gbs 

    There are an even number of electrons - assuming singlet.
    Specify the multiplicity in the molecule input block.


         ---------------------------------------------------------
                                   SCF
            by Justin Turney, Rob Parrish, Andy Simmonett
                             and Daniel Smith
                              RHF Reference
                        1 Threads,    500 MiB Core
         ---------------------------------------------------------

  ==> Geometry <==

    Molecular point group: c1
    Full point group: C1

    Geometry (in Angstrom), charge = 0, multiplicity = 1:

       Center              X                  Y                   Z               Mass       
    ------------   -----------------  -----------------  -----------------  -----------------
         H            0.343854795421     0.595577651192    -1.350890300770     1.007825032070
         C            0.339767795421     0.588494651192    -0.258391300770    12.000000000000
         H            1.369383795421     0.580776651192     0.107602699230     1.007825032070
         H           -0.181723204579     1.476310651192     0.107604699230     1.007825032070
         O           -0.331312204579    -0.573849348808     0.192064699230    15.994914619560
         H           -0.318907204579    -0.552364348808     1.164097699230     1.007825032070

  Running in c1 symmetry.

  Rotational constants: A =      4.20902  B =      0.83697  C =      0.80607 [cm^-1]
  Rotational constants: A = 126183.38800  B =  25091.69619  C =  24165.33842 [MHz]
  Nuclear repulsion =   40.367448955348131

  Charge       = 0
  Multiplicity = 1
  Electrons    = 18
  Nalpha       = 9
  Nbeta        = 9

  ==> Algorithm <==

  SCF Algorithm Type is DF.
  DIIS enabled.
  MOM disabled.
  Fractional occupation disabled.
  Guess Type is SAD.
  Energy threshold   = 1.00e-06
  Density threshold  = 1.00e-06
  Integral threshold = 0.00e+00

  ==> Primary Basis <==

  Basis Set: CC-PVDZ
    Blend: CC-PVDZ
    Number of shells: 24
    Number of basis function: 48
    Number of Cartesian functions: 50
    Spherical Harmonics?: true
    Max angular momentum: 2

   => Loading Basis Set <=

    Name: (CC-PVDZ AUX)
    Role: JKFIT
    Keyword: DF_BASIS_SCF
    atoms 1, 3-4, 6 entry H          line    51 file /Users/armcdona/miniconda/share/psi4/basis/cc-pvdz-jkfit.gbs 
    atoms 2         entry C          line   121 file /Users/armcdona/miniconda/share/psi4/basis/cc-pvdz-jkfit.gbs 
    atoms 5         entry O          line   221 file /Users/armcdona/miniconda/share/psi4/basis/cc-pvdz-jkfit.gbs 

  ==> Pre-Iterations <==

   -------------------------------------------------------
    Irrep   Nso     Nmo     Nalpha   Nbeta   Ndocc  Nsocc
   -------------------------------------------------------
     A         48      48       0       0       0       0
   -------------------------------------------------------
    Total      48      48       9       9       9       0
   -------------------------------------------------------

  ==> Integral Setup <==

  DFHelper Memory: AOs need 0.005 [GiB]; user supplied 0.366 [GiB]. Using in-core AOs.

  ==> MemDFJK: Density-Fitted J/K Matrices <==

    J tasked:                   Yes
    K tasked:                   Yes
    wK tasked:                   No
    OpenMP threads:               1
    Memory (MB):                375
    Algorithm:                 Core
    Schwarz Cutoff:           1E-12
    Mask sparsity (%):       0.0000
    Fitting Condition:        1E-12

   => Auxiliary Basis Set <=

  Basis Set: (CC-PVDZ AUX)
    Blend: CC-PVDZ-JKFIT
    Number of shells: 84
    Number of basis function: 232
    Number of Cartesian functions: 262
    Spherical Harmonics?: true
    Max angular momentum: 3

  Minimum eigenvalue in the overlap matrix is 1.6401354143E-02.
  Using Symmetric Orthogonalization.

  SCF Guess: Superposition of Atomic Densities via on-the-fly atomic UHF.

  ==> Iterations <==

                           Total Energy        Delta E     RMS |[F,P]|

   @DF-RHF iter   0:  -115.36710752845345   -1.15367e+02   5.19419e-02 
   @DF-RHF iter   1:  -114.99498652312086    3.72121e-01   5.99159e-03 
   @DF-RHF iter   2:  -115.03928080396319   -4.42943e-02   2.65469e-03 DIIS
   @DF-RHF iter   3:  -115.04655354289184   -7.27274e-03   8.95316e-04 DIIS
   @DF-RHF iter   4:  -115.04791588154414   -1.36234e-03   1.68889e-04 DIIS
   @DF-RHF iter   5:  -115.04800155592406   -8.56744e-05   4.50074e-05 DIIS
   @DF-RHF iter   6:  -115.04800803463682   -6.47871e-06   1.36466e-05 DIIS
   @DF-RHF iter   7:  -115.04800856100887   -5.26372e-07   4.27793e-06 DIIS
   @DF-RHF iter   8:  -115.04800861868374   -5.76749e-08   8.84026e-07 DIIS

  ==> Post-Iterations <==

    Orbital Energies [Eh]
    ---------------------

    Doubly Occupied:                                                      

       1A    -20.548072     2A    -11.274240     3A     -1.347868  
       4A     -0.918324     5A     -0.678535     6A     -0.617356  
       7A     -0.587550     8A     -0.493936     9A     -0.440326  

    Virtual:                                                              

      10A      0.182620    11A      0.224108    12A      0.265086  
      13A      0.269779    14A      0.361209    15A      0.632688  
      16A      0.641239    17A      0.729664    18A      0.799652  
      19A      0.862905    20A      0.896153    21A      0.898344  
      22A      1.116867    23A      1.149680    24A      1.165805  
      25A      1.275725    26A      1.333298    27A      1.449154  
      28A      1.596346    29A      1.666516    30A      1.669676  
      31A      1.854903    32A      1.899981    33A      1.929793  
      34A      1.964134    35A      2.030191    36A      2.159564  
      37A      2.284578    38A      2.374920    39A      2.375833  
      40A      2.496360    41A      2.757500    42A      2.764080  
      43A      2.772303    44A      3.306206    45A      3.386884  
      46A      3.447072    47A      3.589257    48A      4.077914  

    Final Occupation by Irrep:
              A 
    DOCC [     9 ]

  Energy converged.

  @DF-RHF Final Energy:  -115.04800861868374

   => Energetics <=

    Nuclear Repulsion Energy =             40.3674489553481308
    One-Electron Energy =                -237.0184535171022162
    Two-Electron Energy =                  81.6029959430703542
    Total Energy =                       -115.0480086186837383



Properties will be evaluated at   0.000000,   0.000000,   0.000000 [a0]

Properties computed using the SCF density matrix

  Nuclear Dipole Moment: [e a0]
     X:     1.1352      Y:     1.9662      Z:     0.0276

  Electronic Dipole Moment: [e a0]
     X:    -0.8416      Y:    -1.4577      Z:     0.3836

  Dipole Moment: [e a0]
     X:     0.2936      Y:     0.5085      Z:     0.4111     Total:     0.7168

  Dipole Moment: [D]
     X:     0.7462      Y:     1.2926      Z:     1.0449     Total:     1.8220


*** tstop() called on csm-armcdona-m1 at Fri Jan 18 15:05:29 2019
Module time:
	user time   =       0.89 seconds =       0.01 minutes
	system time =       0.05 seconds =       0.00 minutes
	total time  =          1 seconds =       0.02 minutes
Total time:
	user time   =       0.89 seconds =       0.01 minutes
	system time =       0.05 seconds =       0.00 minutes
	total time  =          1 seconds =       0.02 minutes

    Psi4 stopped on: Friday, 18 January 2019 03:05PM
    Psi4 wall time for execution: 0:00:01.02

*** Psi4 exiting successfully. Buy a developer a beer!
