
    -----------------------------------------------------------------------
          Psi4: An Open-Source Ab Initio Electronic Structure Package
                               Psi4 1.2.1 release

                         Git: Rev {HEAD} 406f4de 


    R. M. Parrish, L. A. Burns, D. G. A. Smith, A. C. Simmonett,
    A. E. DePrince III, E. G. Hohenstein, U. Bozkaya, A. Yu. Sokolov,
    R. Di Remigio, R. M. Richard, J. F. Gonthier, A. M. James,
    H. R. McAlexander, A. Kumar, M. Saitow, X. Wang, B. P. Pritchard,
    P. Verma, H. F. Schaefer III, K. Patkowski, R. A. King, E. F. Valeev,
    F. A. Evangelista, J. M. Turney, T. D. Crawford, and C. D. Sherrill,
    J. Chem. Theory Comput. 13(7) pp 3185--3197 (2017).
    (doi: 10.1021/acs.jctc.7b00174)


                         Additional Contributions by
    P. Kraus, H. Kruse, M. H. Lechner, M. C. Schieber, and R. A. Shaw

    -----------------------------------------------------------------------


    Psi4 started on: Friday, 18 January 2019 03:06PM

    Process ID: 58907
    Host:       csm-armcdona-m1
    PSIDATADIR: /Users/armcdona/miniconda/share/psi4
    Memory:     500.0 MiB
    Threads:    1
    
  ==> Input File <==

--------------------------------------------------------------------------
#! You can write anything you want; this is a test
  
molecule pentanol {
C       -0.017615      0.037150      1.148944
H        0.994137      0.034366      1.566857
H       -0.544392      0.931842      1.495772
O       -0.708307     -1.107987      1.629267
H       -0.718496     -1.048541      2.599783
C        0.023165     -0.014618     -0.372582
H       -1.001662     -0.059972     -0.761486
H        0.504964     -0.949306     -0.682221
C        0.757605      1.191787     -0.955240
H        1.796582      1.198054     -0.603757
H        0.291539      2.110924     -0.578898
C        0.733273      1.236013     -2.484491
H        1.178377      2.183446     -2.811231
H       -0.303084      1.233312     -2.841727
C        1.496763      0.094050     -3.137245
H        2.528624      0.052879     -2.774481
H        1.524822      0.233598     -4.222745
H        1.021199     -0.871139     -2.940451
}

set basis cc-pVDZ
energy('scf')
--------------------------------------------------------------------------

*** tstart() called on csm-armcdona-m1
*** at Fri Jan 18 15:06:14 2019

   => Loading Basis Set <=

    Name: CC-PVDZ
    Role: ORBITAL
    Keyword: BASIS
    atoms 1, 6, 9, 12, 15                  entry C          line   138 file /Users/armcdona/miniconda/share/psi4/basis/cc-pvdz.gbs 
    atoms 2-3, 5, 7-8, 10-11, 13-14, 16-18 entry H          line    22 file /Users/armcdona/miniconda/share/psi4/basis/cc-pvdz.gbs 
    atoms 4                                entry O          line   198 file /Users/armcdona/miniconda/share/psi4/basis/cc-pvdz.gbs 

    There are an even number of electrons - assuming singlet.
    Specify the multiplicity in the molecule input block.


         ---------------------------------------------------------
                                   SCF
            by Justin Turney, Rob Parrish, Andy Simmonett
                             and Daniel Smith
                              RHF Reference
                        1 Threads,    500 MiB Core
         ---------------------------------------------------------

  ==> Geometry <==

    Molecular point group: c1
    Full point group: C1

    Geometry (in Angstrom), charge = 0, multiplicity = 1:

       Center              X                  Y                   Z               Mass       
    ------------   -----------------  -----------------  -----------------  -----------------
         C           -0.379959531658    -0.166047213454     1.786938806378    12.000000000000
         H            0.631792468342    -0.168831213454     2.204851806378     1.007825032070
         H           -0.906736531658     0.728644786546     2.133766806378     1.007825032070
         O           -1.070651531658    -1.311184213454     2.267261806378    15.994914619560
         H           -1.080840531658    -1.251738213454     3.237777806378     1.007825032070
         C           -0.339179531658    -0.217815213454     0.265412806378    12.000000000000
         H           -1.364006531658    -0.263169213454    -0.123491193622     1.007825032070
         H            0.142619468342    -1.152503213454    -0.044226193622     1.007825032070
         C            0.395260468342     0.988589786546    -0.317245193622    12.000000000000
         H            1.434237468342     0.994856786546     0.034237806378     1.007825032070
         H           -0.070805531658     1.907726786546     0.059096806378     1.007825032070
         C            0.370928468342     1.032815786546    -1.846496193622    12.000000000000
         H            0.816032468342     1.980248786546    -2.173236193622     1.007825032070
         H           -0.665428531658     1.030114786546    -2.203732193622     1.007825032070
         C            1.134418468342    -0.109147213454    -2.499250193622    12.000000000000
         H            2.166279468342    -0.150318213454    -2.136486193622     1.007825032070
         H            1.162477468342     0.030400786546    -3.584750193622     1.007825032070
         H            0.658854468342    -1.074336213454    -2.302456193622     1.007825032070

  Running in c1 symmetry.

  Rotational constants: A =      0.31059  B =      0.04529  C =      0.04219 [cm^-1]
  Rotational constants: A =   9311.39330  B =   1357.75490  C =   1264.84189 [MHz]
  Nuclear repulsion =  248.144482508454644

  Charge       = 0
  Multiplicity = 1
  Electrons    = 50
  Nalpha       = 25
  Nbeta        = 25

  ==> Algorithm <==

  SCF Algorithm Type is DF.
  DIIS enabled.
  MOM disabled.
  Fractional occupation disabled.
  Guess Type is SAD.
  Energy threshold   = 1.00e-06
  Density threshold  = 1.00e-06
  Integral threshold = 0.00e+00

  ==> Primary Basis <==

  Basis Set: CC-PVDZ
    Blend: CC-PVDZ
    Number of shells: 72
    Number of basis function: 144
    Number of Cartesian functions: 150
    Spherical Harmonics?: true
    Max angular momentum: 2

   => Loading Basis Set <=

    Name: (CC-PVDZ AUX)
    Role: JKFIT
    Keyword: DF_BASIS_SCF
    atoms 1, 6, 9, 12, 15                  entry C          line   121 file /Users/armcdona/miniconda/share/psi4/basis/cc-pvdz-jkfit.gbs 
    atoms 2-3, 5, 7-8, 10-11, 13-14, 16-18 entry H          line    51 file /Users/armcdona/miniconda/share/psi4/basis/cc-pvdz-jkfit.gbs 
    atoms 4                                entry O          line   221 file /Users/armcdona/miniconda/share/psi4/basis/cc-pvdz-jkfit.gbs 

  ==> Pre-Iterations <==

   -------------------------------------------------------
    Irrep   Nso     Nmo     Nalpha   Nbeta   Ndocc  Nsocc
   -------------------------------------------------------
     A        144     144       0       0       0       0
   -------------------------------------------------------
    Total     144     144      25      25      25       0
   -------------------------------------------------------

  ==> Integral Setup <==

  DFHelper Memory: AOs need 0.131 [GiB]; user supplied 0.366 [GiB]. Using in-core AOs.

  ==> MemDFJK: Density-Fitted J/K Matrices <==

    J tasked:                   Yes
    K tasked:                   Yes
    wK tasked:                   No
    OpenMP threads:               1
    Memory (MB):                375
    Algorithm:                 Core
    Schwarz Cutoff:           1E-12
    Mask sparsity (%):       5.8449
    Fitting Condition:        1E-12

   => Auxiliary Basis Set <=

  Basis Set: (CC-PVDZ AUX)
    Blend: CC-PVDZ-JKFIT
    Number of shells: 252
    Number of basis function: 696
    Number of Cartesian functions: 786
    Spherical Harmonics?: true
    Max angular momentum: 3

  Minimum eigenvalue in the overlap matrix is 2.8693033305E-03.
  Using Symmetric Orthogonalization.

  SCF Guess: Superposition of Atomic Densities via on-the-fly atomic UHF.

  ==> Iterations <==

                           Total Energy        Delta E     RMS |[F,P]|

   @DF-RHF iter   0:  -273.86663411439963   -2.73867e+02   3.29076e-02 
   @DF-RHF iter   1:  -271.02743039615132    2.83920e+00   3.37692e-03 
   @DF-RHF iter   2:  -271.17661224911359   -1.49182e-01   1.44724e-03 DIIS
   @DF-RHF iter   3:  -271.19748883255841   -2.08766e-02   4.84826e-04 DIIS
   @DF-RHF iter   4:  -271.20114370417230   -3.65487e-03   1.09656e-04 DIIS
   @DF-RHF iter   5:  -271.20135392366785   -2.10219e-04   3.41931e-05 DIIS
   @DF-RHF iter   6:  -271.20137913569442   -2.52120e-05   8.62690e-06 DIIS
   @DF-RHF iter   7:  -271.20138105292881   -1.91723e-06   2.21194e-06 DIIS
   @DF-RHF iter   8:  -271.20138119895074   -1.46022e-07   6.30973e-07 DIIS

  ==> Post-Iterations <==

    Orbital Energies [Eh]
    ---------------------

    Doubly Occupied:                                                      

       1A    -20.545453     2A    -11.272198     3A    -11.222498  
       4A    -11.221442     5A    -11.218439     6A    -11.216141  
       7A     -1.347086     8A     -1.081936     9A     -1.006585  
      10A     -0.910736    11A     -0.826782    12A     -0.777632  
      13A     -0.676707    14A     -0.654682    15A     -0.613735  
      16A     -0.605594    17A     -0.568852    18A     -0.546239  
      19A     -0.525709    20A     -0.499149    21A     -0.488244  
      22A     -0.464628    23A     -0.456664    24A     -0.450635  
      25A     -0.432813  

    Virtual:                                                              

      26A      0.182308    27A      0.188406    28A      0.211178  
      29A      0.214582    30A      0.224809    31A      0.256832  
      32A      0.261996    33A      0.280407    34A      0.288247  
      35A      0.296480    36A      0.310667    37A      0.313568  
      38A      0.362316    39A      0.406408    40A      0.413780  
      41A      0.423858    42A      0.471042    43A      0.590517  
      44A      0.592916    45A      0.612250    46A      0.626061  
      47A      0.647043    48A      0.666523    49A      0.702659  
      50A      0.783198    51A      0.798585    52A      0.819211  
      53A      0.833101    54A      0.853200    55A      0.866100  
      56A      0.872981    57A      0.887166    58A      0.896505  
      59A      0.900756    60A      0.908539    61A      0.911968  
      62A      0.915615    63A      0.928283    64A      0.932764  
      65A      0.940021    66A      0.962159    67A      0.968289  
      68A      1.041378    69A      1.044898    70A      1.130548  
      71A      1.141857    72A      1.151704    73A      1.259307  
      74A      1.324790    75A      1.332628    76A      1.359218  
      77A      1.402981    78A      1.420817    79A      1.460223  
      80A      1.470822    81A      1.512982    82A      1.544700  
      83A      1.552159    84A      1.599033    85A      1.616969  
      86A      1.689108    87A      1.701366    88A      1.733598  
      89A      1.755209    90A      1.799603    91A      1.860537  
      92A      1.869733    93A      1.890713    94A      1.905088  
      95A      1.915399    96A      1.928216    97A      1.949319  
      98A      1.954835    99A      1.961638   100A      1.971371  
     101A      1.987794   102A      1.996611   103A      2.004123  
     104A      2.013761   105A      2.014825   106A      2.039105  
     107A      2.042032   108A      2.065709   109A      2.108916  
     110A      2.143255   111A      2.176971   112A      2.206181  
     113A      2.225337   114A      2.269192   115A      2.275650  
     116A      2.328006   117A      2.344841   118A      2.390440  
     119A      2.424792   120A      2.457649   121A      2.500658  
     122A      2.527595   123A      2.567078   124A      2.586633  
     125A      2.613318   126A      2.626147   127A      2.633242  
     128A      2.637634   129A      2.737956   130A      2.766007  
     131A      2.802192   132A      2.834808   133A      2.851970  
     134A      2.872955   135A      2.893113   136A      2.962723  
     137A      3.008849   138A      3.053020   139A      3.094184  
     140A      3.339250   141A      3.419781   142A      3.477909  
     143A      3.618093   144A      4.117032  

    Final Occupation by Irrep:
              A 
    DOCC [    25 ]

  Energy converged.

  @DF-RHF Final Energy:  -271.20138119895074

   => Energetics <=

    Nuclear Repulsion Energy =            248.1444825084546437
    One-Electron Energy =                -859.4305557898035204
    Two-Electron Energy =                 340.0846920823981350
    Total Energy =                       -271.2013811989507417



Properties will be evaluated at   0.000000,   0.000000,   0.000000 [a0]

Properties computed using the SCF density matrix

  Nuclear Dipole Moment: [e a0]
     X:     2.7365      Y:     2.4415      Z:    -4.5814

  Electronic Dipole Moment: [e a0]
     X:    -2.4771      Y:    -1.9481      Z:     4.9133

  Dipole Moment: [e a0]
     X:     0.2593      Y:     0.4934      Z:     0.3319     Total:     0.6487

  Dipole Moment: [D]
     X:     0.6591      Y:     1.2541      Z:     0.8435     Total:     1.6489


*** tstop() called on csm-armcdona-m1 at Fri Jan 18 15:06:19 2019
Module time:
	user time   =       4.42 seconds =       0.07 minutes
	system time =       0.22 seconds =       0.00 minutes
	total time  =          5 seconds =       0.08 minutes
Total time:
	user time   =       4.42 seconds =       0.07 minutes
	system time =       0.22 seconds =       0.00 minutes
	total time  =          5 seconds =       0.08 minutes

    Psi4 stopped on: Friday, 18 January 2019 03:06PM
    Psi4 wall time for execution: 0:00:04.82

*** Psi4 exiting successfully. Buy a developer a beer!
