
    -----------------------------------------------------------------------
          Psi4: An Open-Source Ab Initio Electronic Structure Package
                               Psi4 1.2.1 release

                         Git: Rev {HEAD} 406f4de 


    R. M. Parrish, L. A. Burns, D. G. A. Smith, A. C. Simmonett,
    A. E. DePrince III, E. G. Hohenstein, U. Bozkaya, A. Yu. Sokolov,
    R. Di Remigio, R. M. Richard, J. F. Gonthier, A. M. James,
    H. R. McAlexander, A. Kumar, M. Saitow, X. Wang, B. P. Pritchard,
    P. Verma, H. F. Schaefer III, K. Patkowski, R. A. King, E. F. Valeev,
    F. A. Evangelista, J. M. Turney, T. D. Crawford, and C. D. Sherrill,
    J. Chem. Theory Comput. 13(7) pp 3185--3197 (2017).
    (doi: 10.1021/acs.jctc.7b00174)


                         Additional Contributions by
    P. Kraus, H. Kruse, M. H. Lechner, M. C. Schieber, and R. A. Shaw

    -----------------------------------------------------------------------


    Psi4 started on: Friday, 18 January 2019 03:05PM

    Process ID: 58888
    Host:       csm-armcdona-m1
    PSIDATADIR: /Users/armcdona/miniconda/share/psi4
    Memory:     500.0 MiB
    Threads:    1
    
  ==> Input File <==

--------------------------------------------------------------------------
#! Title line

molecule propanol {
C        0.008400      0.011665      1.102846
H        1.026360     -0.011077      1.504809
H       -0.513967      0.885511      1.505163
O       -0.673050     -1.159226      1.531226
H       -0.668654     -1.152057      2.503580
C        0.025665      0.041926     -0.417823
H       -1.002564      0.015612     -0.798121
H        0.510455     -0.865082     -0.798468
C        0.740731      1.270609     -0.950155
H        1.781895      1.295331     -0.612980
H        0.248154      2.188086     -0.612628
H        0.738230      1.266744     -2.044615
}

set basis cc-pVDZ
energy('scf')
--------------------------------------------------------------------------

*** tstart() called on csm-armcdona-m1
*** at Fri Jan 18 15:05:48 2019

   => Loading Basis Set <=

    Name: CC-PVDZ
    Role: ORBITAL
    Keyword: BASIS
    atoms 1, 6, 9            entry C          line   138 file /Users/armcdona/miniconda/share/psi4/basis/cc-pvdz.gbs 
    atoms 2-3, 5, 7-8, 10-12 entry H          line    22 file /Users/armcdona/miniconda/share/psi4/basis/cc-pvdz.gbs 
    atoms 4                  entry O          line   198 file /Users/armcdona/miniconda/share/psi4/basis/cc-pvdz.gbs 

    There are an even number of electrons - assuming singlet.
    Specify the multiplicity in the molecule input block.


         ---------------------------------------------------------
                                   SCF
            by Justin Turney, Rob Parrish, Andy Simmonett
                             and Daniel Smith
                              RHF Reference
                        1 Threads,    500 MiB Core
         ---------------------------------------------------------

  ==> Geometry <==

    Molecular point group: c1
    Full point group: C1

    Geometry (in Angstrom), charge = 0, multiplicity = 1:

       Center              X                  Y                   Z               Mass       
    ------------   -----------------  -----------------  -----------------  -----------------
         C           -0.002733861809    -0.004987332861     0.737162439170    12.000000000000
         H            1.015226138191    -0.027729332861     1.139125439170     1.007825032070
         H           -0.525100861809     0.868858667139     1.139479439170     1.007825032070
         O           -0.684183861809    -1.175878332861     1.165542439170    15.994914619560
         H           -0.679787861809    -1.168709332861     2.137896439170     1.007825032070
         C            0.014531138191     0.025273667139    -0.783506560830    12.000000000000
         H           -1.013697861809    -0.001040332861    -1.163804560830     1.007825032070
         H            0.499321138191    -0.881734332861    -1.164151560830     1.007825032070
         C            0.729597138191     1.253956667139    -1.315838560830    12.000000000000
         H            1.770761138191     1.278678667139    -0.978663560830     1.007825032070
         H            0.237020138191     2.171433667139    -0.978311560830     1.007825032070
         H            0.727096138191     1.250091667139    -2.410298560830     1.007825032070

  Running in c1 symmetry.

  Rotational constants: A =      0.88736  B =      0.12727  C =      0.11873 [cm^-1]
  Rotational constants: A =  26602.48991  B =   3815.54684  C =   3559.36236 [MHz]
  Nuclear repulsion =  130.514646204846684

  Charge       = 0
  Multiplicity = 1
  Electrons    = 34
  Nalpha       = 17
  Nbeta        = 17

  ==> Algorithm <==

  SCF Algorithm Type is DF.
  DIIS enabled.
  MOM disabled.
  Fractional occupation disabled.
  Guess Type is SAD.
  Energy threshold   = 1.00e-06
  Density threshold  = 1.00e-06
  Integral threshold = 0.00e+00

  ==> Primary Basis <==

  Basis Set: CC-PVDZ
    Blend: CC-PVDZ
    Number of shells: 48
    Number of basis function: 96
    Number of Cartesian functions: 100
    Spherical Harmonics?: true
    Max angular momentum: 2

   => Loading Basis Set <=

    Name: (CC-PVDZ AUX)
    Role: JKFIT
    Keyword: DF_BASIS_SCF
    atoms 1, 6, 9            entry C          line   121 file /Users/armcdona/miniconda/share/psi4/basis/cc-pvdz-jkfit.gbs 
    atoms 2-3, 5, 7-8, 10-12 entry H          line    51 file /Users/armcdona/miniconda/share/psi4/basis/cc-pvdz-jkfit.gbs 
    atoms 4                  entry O          line   221 file /Users/armcdona/miniconda/share/psi4/basis/cc-pvdz-jkfit.gbs 

  ==> Pre-Iterations <==

   -------------------------------------------------------
    Irrep   Nso     Nmo     Nalpha   Nbeta   Ndocc  Nsocc
   -------------------------------------------------------
     A         96      96       0       0       0       0
   -------------------------------------------------------
    Total      96      96      17      17      17       0
   -------------------------------------------------------

  ==> Integral Setup <==

  DFHelper Memory: AOs need 0.041 [GiB]; user supplied 0.366 [GiB]. Using in-core AOs.

  ==> MemDFJK: Density-Fitted J/K Matrices <==

    J tasked:                   Yes
    K tasked:                   Yes
    wK tasked:                   No
    OpenMP threads:               1
    Memory (MB):                375
    Algorithm:                 Core
    Schwarz Cutoff:           1E-12
    Mask sparsity (%):       0.8247
    Fitting Condition:        1E-12

   => Auxiliary Basis Set <=

  Basis Set: (CC-PVDZ AUX)
    Blend: CC-PVDZ-JKFIT
    Number of shells: 168
    Number of basis function: 464
    Number of Cartesian functions: 524
    Spherical Harmonics?: true
    Max angular momentum: 3

  Minimum eigenvalue in the overlap matrix is 4.4717268732E-03.
  Using Symmetric Orthogonalization.

  SCF Guess: Superposition of Atomic Densities via on-the-fly atomic UHF.

  ==> Iterations <==

                           Total Energy        Delta E     RMS |[F,P]|

   @DF-RHF iter   0:  -194.28920762453527   -1.94289e+02   3.74106e-02 
   @DF-RHF iter   1:  -193.03172909694706    1.25748e+00   3.70374e-03 
   @DF-RHF iter   2:  -193.11759574000482   -8.58666e-02   1.19529e-03 DIIS
   @DF-RHF iter   3:  -193.12662614471918   -9.03040e-03   4.80225e-04 DIIS
   @DF-RHF iter   4:  -193.12826105285336   -1.63491e-03   9.69103e-05 DIIS
   @DF-RHF iter   5:  -193.12835240460538   -9.13518e-05   3.21242e-05 DIIS
   @DF-RHF iter   6:  -193.12836115686292   -8.75226e-06   1.22138e-05 DIIS
   @DF-RHF iter   7:  -193.12836238565018   -1.22879e-06   3.02120e-06 DIIS
   @DF-RHF iter   8:  -193.12836249728798   -1.11638e-07   6.45786e-07 DIIS

  ==> Post-Iterations <==

    Orbital Energies [Eh]
    ---------------------

    Doubly Occupied:                                                      

       1A    -20.545892     2A    -11.272809     3A    -11.221694  
       4A    -11.220751     5A     -1.347664     6A     -1.051559  
       7A     -0.911519     8A     -0.801834     9A     -0.677765  
      10A     -0.652377    11A     -0.597393    12A     -0.572149  
      13A     -0.523420    14A     -0.502006    15A     -0.480958  
      16A     -0.466914    17A     -0.433669  

    Virtual:                                                              

      18A      0.182966    19A      0.191390    20A      0.228387  
      21A      0.237405    22A      0.258717    23A      0.281233  
      24A      0.290567    25A      0.299949    26A      0.371029  
      27A      0.410748    28A      0.422104    29A      0.599922  
      30A      0.622550    31A      0.636761    32A      0.651156  
      33A      0.681981    34A      0.789538    35A      0.825452  
      36A      0.867117    37A      0.868677    38A      0.874101  
      39A      0.874935    40A      0.893475    41A      0.900769  
      42A      0.913650    43A      0.924123    44A      0.933242  
      45A      0.960160    46A      1.127013    47A      1.152610  
      48A      1.154772    49A      1.260591    50A      1.331802  
      51A      1.398835    52A      1.455034    53A      1.464576  
      54A      1.466974    55A      1.516903    56A      1.602282  
      57A      1.633500    58A      1.672516    59A      1.687840  
      60A      1.792498    61A      1.866661    62A      1.877382  
      63A      1.886539    64A      1.901480    65A      1.919956  
      66A      1.953583    67A      1.971620    68A      1.974334  
      69A      1.981534    70A      1.997399    71A      2.050255  
      72A      2.099796    73A      2.147521    74A      2.152525  
      75A      2.240203    76A      2.262887    77A      2.326322  
      78A      2.367200    79A      2.429666    80A      2.478419  
      81A      2.510946    82A      2.575522    83A      2.614722  
      84A      2.622207    85A      2.741766    86A      2.762997  
      87A      2.786989    88A      2.872122    89A      2.920317  
      90A      2.965061    91A      2.986315    92A      3.339492  
      93A      3.417363    94A      3.475038    95A      3.613089  
      96A      4.113214  

    Final Occupation by Irrep:
              A 
    DOCC [    17 ]

  Energy converged.

  @DF-RHF Final Energy:  -193.12836249728798

   => Energetics <=

    Nuclear Repulsion Energy =            130.5146462048466844
    One-Electron Energy =                -520.7252644350917308
    Two-Electron Energy =                 197.0822557329570373
    Total Energy =                       -193.1283624972879807



Properties will be evaluated at   0.000000,   0.000000,   0.000000 [a0]

Properties computed using the SCF density matrix

  Nuclear Dipole Moment: [e a0]
     X:     1.9006      Y:     3.2660      Z:    -2.1306

  Electronic Dipole Moment: [e a0]
     X:    -1.6356      Y:    -2.8110      Z:     2.4982

  Dipole Moment: [e a0]
     X:     0.2649      Y:     0.4550      Z:     0.3676     Total:     0.6421

  Dipole Moment: [D]
     X:     0.6734      Y:     1.1565      Z:     0.9343     Total:     1.6321


*** tstop() called on csm-armcdona-m1 at Fri Jan 18 15:05:51 2019
Module time:
	user time   =       2.08 seconds =       0.03 minutes
	system time =       0.08 seconds =       0.00 minutes
	total time  =          3 seconds =       0.05 minutes
Total time:
	user time   =       2.08 seconds =       0.03 minutes
	system time =       0.08 seconds =       0.00 minutes
	total time  =          3 seconds =       0.05 minutes

    Psi4 stopped on: Friday, 18 January 2019 03:05PM
    Psi4 wall time for execution: 0:00:02.25

*** Psi4 exiting successfully. Buy a developer a beer!
